
    -----------------------------------------------------------------------
          Psi4: An Open-Source Ab Initio Electronic Structure Package
                               Psi4 1.1 release

                         Git: Rev {HEAD} add49b9 


    R. M. Parrish, L. A. Burns, D. G. A. Smith, A. C. Simmonett,
    A. E. DePrince III, E. G. Hohenstein, U. Bozkaya, A. Yu. Sokolov,
    R. Di Remigio, R. M. Richard, J. F. Gonthier, A. M. James,
    H. R. McAlexander, A. Kumar, M. Saitow, X. Wang, B. P. Pritchard,
    P. Verma, H. F. Schaefer III, K. Patkowski, R. A. King, E. F. Valeev,
    F. A. Evangelista, J. M. Turney, T. D. Crawford, and C. D. Sherrill,
    J. Chem. Theory Comput. in press (2017).
    (doi: 10.1021/acs.jctc.7b00174)

    -----------------------------------------------------------------------


    Psi4 started on: Thursday, 15 March 2018 03:15PM

    Process ID:  54773
    PSIDATADIR: /nv/hp22/dprofili3/.conda/envs/psi4/share/psi4
    Memory:     500.0 MiB
    Threads:    1
    
  ==> Input File <==

--------------------------------------------------------------------------

molecule TFSI {
N          0.00000        0.00000        0.00000
S          1.45886        0.00000        0.00000
O          2.42897        0.00000        1.02739
O          2.23982        0.16366       -1.63828
C          1.60195       -1.93235       -0.63036
F          0.95836       -2.02429       -1.58520
F          2.85268       -2.36758       -0.82387
F          1.50181       -2.70126        0.53282
S         -1.18886        0.96111        0.00000
O         -1.11689        2.52389       -0.00073
O         -2.93090        0.40344        0.50113
C         -1.65878        0.32416       -1.52963
F         -2.80559        0.69535       -1.37837
F         -1.63800        1.52214       -2.37914
F         -1.69923       -0.98950       -1.29300
  -1    1
}

set {
basis def2-SVP
}

grad, wfn = gradient('pbe0', return_wfn=True)

set {
 gdma_limit 4
 gdma_radius ['C',0.53,'N',0.53,'O',0.53,'S',0.53,'F',0.53','H',0.53]
 gdma_multipole_units AU
 gdma_switch 0
}

gdma( wfn )

dma_results = get_array_variable('DMA DISTRIBUTED MULTIPOLES')
--------------------------------------------------------------------------
gradient() will perform analytic gradient computation.

*** tstart() called on iw-h31-20.pace.gatech.edu
*** at Thu Mar 15 15:15:57 2018

   => Loading Basis Set <=

    Name: DEF2-SVP
    Role: ORBITAL
    Keyword: BASIS
    atoms 1          entry N          line   109 file /nv/hp22/dprofili3/.conda/envs/psi4/share/psi4/basis/def2-svp.gbs 
    atoms 2, 9       entry S          line   327 file /nv/hp22/dprofili3/.conda/envs/psi4/share/psi4/basis/def2-svp.gbs 
    atoms 3-4, 10-11 entry O          line   129 file /nv/hp22/dprofili3/.conda/envs/psi4/share/psi4/basis/def2-svp.gbs 
    atoms 5, 12      entry C          line    89 file /nv/hp22/dprofili3/.conda/envs/psi4/share/psi4/basis/def2-svp.gbs 
    atoms 6-8, 13-15 entry F          line   149 file /nv/hp22/dprofili3/.conda/envs/psi4/share/psi4/basis/def2-svp.gbs 


         ---------------------------------------------------------
                                   SCF
            by Justin Turney, Rob Parrish, and Andy Simmonett
                              RKS Reference
                        1 Threads,    500 MiB Core
         ---------------------------------------------------------

  ==> Geometry <==

    Molecular point group: c1
    Full point group: C1

    Geometry (in Angstrom), charge = -1, multiplicity = 1:

       Center              X                  Y                   Z               Mass       
    ------------   -----------------  -----------------  -----------------  -----------------
           N         -0.007556647879     0.180616837554     0.569041431687    14.003074004780
           S          1.451303352121     0.180616837554     0.569041431687    31.972070999000
           O          2.421413352121     0.180616837554     1.596431431687    15.994914619560
           O          2.232263352121     0.344276837554    -1.069238568313    15.994914619560
           C          1.594393352121    -1.751733162446    -0.061318568313    12.000000000000
           F          0.950803352121    -1.843673162446    -1.016158568313    18.998403224000
           F          2.845123352121    -2.186963162446    -0.254828568313    18.998403224000
           F          1.494253352121    -2.520643162446     1.101861431687    18.998403224000
           S         -1.196416647879     1.141726837554     0.569041431687    31.972070999000
           O         -1.124446647879     2.704506837554     0.568311431687    15.994914619560
           O         -2.938456647879     0.584056837554     1.070171431687    15.994914619560
           C         -1.666336647879     0.504776837554    -0.960588568313    12.000000000000
           F         -2.813146647879     0.875966837554    -0.809328568313    18.998403224000
           F         -1.645556647879     1.702756837554    -1.810098568313    18.998403224000
           F         -1.706786647879    -0.808883162446    -0.723958568313    18.998403224000

  Running in c1 symmetry.

  Rotational constants: A =      0.03174  B =      0.01144  C =      0.01066 [cm^-1]
  Rotational constants: A =    951.42862  B =    343.02044  C =    319.59772 [MHz]
  Nuclear repulsion = 1596.360457920808813

  Charge       = -1
  Multiplicity = 1
  Electrons    = 138
  Nalpha       = 69
  Nbeta        = 69

  ==> Algorithm <==

  SCF Algorithm Type is DF.
  DIIS enabled.
  MOM disabled.
  Fractional occupation disabled.
  Guess Type is SAD.
  Energy threshold   = 1.00e-08
  Density threshold  = 1.00e-08
  Integral threshold = 0.00e+00

  ==> Primary Basis <==

  Basis Set: DEF2-SVP
    Blend: DEF2-SVP
    Number of shells: 94
    Number of basis function: 218
    Number of Cartesian functions: 233
    Spherical Harmonics?: true
    Max angular momentum: 2

  ==> DFT Potential <==

   => PBE0 Composite Functional <= 

    PBE0 Hybrid GGA Exchange-Correlation Functional

    Adamo et. al., J. Chem. Phys., 110(13), 6158, 1999

    Points   =           5000
    Deriv    =              1
    GGA      =           TRUE
    Meta     =          FALSE

    X_LRC        =          FALSE
    X_Hybrid     =           TRUE
    X_Alpha      =   2.500000E-01
    X_Omega      =   0.000000E+00
    C_LRC        =          FALSE
    C_Hybrid     =          FALSE
    C_Alpha      =   0.000000E+00
    C_Omega      =   0.000000E+00

   => Exchange Functionals <=

    0.7500   PBE_X
    0.2500      HF 

   => Correlation Functionals <=

    1.0000   PBE_C

   => Molecular Quadrature <=

    Radial Scheme    =       TREUTLER
    Pruning Scheme   =           FLAT
    Nuclear Scheme   =       TREUTLER

    BS radius alpha  =              1
    Pruning alpha    =              1
    Radial Points    =             75
    Spherical Points =            302
    Total Points     =         329666
    Total Blocks     =            283
    Max Points       =           4938
    Max Functions    =            189

   => Loading Basis Set <=

    Name: (DEF2-SVP AUX)
    Role: JKFIT
    Keyword: DF_BASIS_SCF
    atoms 1          entry N          line   262 file /nv/hp22/dprofili3/.conda/envs/psi4/share/psi4/basis/def2-svp-jkfit.gbs 
    atoms 2, 9       entry S          line   907 file /nv/hp22/dprofili3/.conda/envs/psi4/share/psi4/basis/def2-svp-jkfit.gbs 
    atoms 3-4, 10-11 entry O          line   322 file /nv/hp22/dprofili3/.conda/envs/psi4/share/psi4/basis/def2-svp-jkfit.gbs 
    atoms 5, 12      entry C          line   202 file /nv/hp22/dprofili3/.conda/envs/psi4/share/psi4/basis/def2-svp-jkfit.gbs 
    atoms 6-8, 13-15 entry F          line   382 file /nv/hp22/dprofili3/.conda/envs/psi4/share/psi4/basis/def2-svp-jkfit.gbs 

  ==> Pre-Iterations <==

   -------------------------------------------------------
    Irrep   Nso     Nmo     Nalpha   Nbeta   Ndocc  Nsocc
   -------------------------------------------------------
     A        218     218       0       0       0       0
   -------------------------------------------------------
    Total     218     218      69      69      69       0
   -------------------------------------------------------

  ==> Integral Setup <==

  ==> DFJK: Density-Fitted J/K Matrices <==

    J tasked:                  Yes
    K tasked:                  Yes
    wK tasked:                  No
    OpenMP threads:              1
    Integrals threads:           1
    Memory (MB):               375
    Algorithm:                Core
    Integral Cache:           NONE
    Schwarz Cutoff:          1E-12
    Fitting Condition:       1E-12

   => Auxiliary Basis Set <=

  Basis Set: (DEF2-SVP AUX)
    Blend: DEF2-SVP-JKFIT
    Number of shells: 401
    Number of basis function: 1253
    Number of Cartesian functions: 1511
    Spherical Harmonics?: true
    Max angular momentum: 4

  Minimum eigenvalue in the overlap matrix is 2.8286467455E-03.
  Using Symmetric Orthogonalization.

  SCF Guess: Superposition of Atomic Densities via on-the-fly atomic UHF.

  ==> Iterations <==

                           Total Energy        Delta E     RMS |[F,P]|

   @DF-RKS iter   0: -1835.87362247270335   -1.83587e+03   2.92319e-02 
   @DF-RKS iter   1: -1823.38084279321947    1.24928e+01   6.42871e-03 
   @DF-RKS iter   2: -1809.76791450840733    1.36129e+01   2.02245e-02 DIIS
   @DF-RKS iter   3: -1823.42292090014894   -1.36550e+01   6.36836e-03 DIIS
   @DF-RKS iter   4: -1824.23839645254611   -8.15476e-01   1.79464e-03 DIIS
   @DF-RKS iter   5: -1824.19402717026173    4.43693e-02   2.34543e-03 DIIS
   @DF-RKS iter   6: -1824.29868144687225   -1.04654e-01   6.27882e-04 DIIS
   @DF-RKS iter   7: -1824.30556077763981   -6.87933e-03   2.58340e-04 DIIS
   @DF-RKS iter   8: -1824.30683942616042   -1.27865e-03   8.89152e-05 DIIS
   @DF-RKS iter   9: -1824.30700561124354   -1.66185e-04   1.99543e-05 DIIS
   @DF-RKS iter  10: -1824.30701304805325   -7.43681e-06   1.21822e-05 DIIS
   @DF-RKS iter  11: -1824.30701628881093   -3.24076e-06   3.69829e-06 DIIS
   @DF-RKS iter  12: -1824.30701658387898   -2.95068e-07   1.51895e-06 DIIS
   @DF-RKS iter  13: -1824.30701664452226   -6.06433e-08   3.72724e-07 DIIS
   @DF-RKS iter  14: -1824.30701665668357   -1.21613e-08   2.28109e-07 DIIS
   @DF-RKS iter  15: -1824.30701666020855   -3.52497e-09   1.02404e-07 DIIS
   @DF-RKS iter  16: -1824.30701666052005   -3.11502e-10   7.20198e-08 DIIS
   @DF-RKS iter  17: -1824.30701666069217   -1.72122e-10   3.00411e-08 DIIS
   @DF-RKS iter  18: -1824.30701666068830    3.86535e-12   2.28719e-08 DIIS
   @DF-RKS iter  19: -1824.30701666070331   -1.50067e-11   1.22054e-08 DIIS
   @DF-RKS iter  20: -1824.30701666070786   -4.54747e-12   6.45834e-09 DIIS

  ==> Post-Iterations <==

    Orbital Energies (a.u.)
    -----------------------

    Doubly Occupied:                                                      

       1A    -89.099222     2A    -89.094215     3A    -24.748857  
       4A    -24.735094     5A    -24.663042     6A    -24.662778  
       7A    -24.650260     8A    -24.646871     9A    -19.101923  
      10A    -19.093885    11A    -19.042754    12A    -19.026720  
      13A    -14.306366    14A    -10.369444    15A    -10.339836  
      16A     -8.075912    17A     -8.067049    18A     -6.018032  
      19A     -6.015706    20A     -6.014116    21A     -6.009861  
      22A     -6.006846    23A     -6.006125    24A     -1.300771  
      25A     -1.284117    26A     -1.178915    27A     -1.147826  
      28A     -1.066531    29A     -1.061682    30A     -1.015625  
      31A     -0.960487    32A     -0.880913    33A     -0.779472  
      34A     -0.746864    35A     -0.705749    36A     -0.624355  
      37A     -0.610930    38A     -0.555078    39A     -0.530452  
      40A     -0.518736    41A     -0.513485    42A     -0.506097  
      43A     -0.491678    44A     -0.439017    45A     -0.412865  
      46A     -0.405965    47A     -0.392213    48A     -0.377221  
      49A     -0.370849    50A     -0.368633    51A     -0.361244  
      52A     -0.351156    53A     -0.340097    54A     -0.329499  
      55A     -0.309069    56A     -0.303707    57A     -0.298091  
      58A     -0.257819    59A     -0.256091    60A     -0.247895  
      61A     -0.227191    62A     -0.224674    63A     -0.212794  
      64A     -0.180036    65A     -0.155896    66A     -0.127200  
      67A     -0.113479    68A     -0.100606    69A     -0.096144  

    Virtual:                                                              

      70A      0.035647    71A      0.046744    72A      0.062011  
      73A      0.162558    74A      0.188155    75A      0.191616  
      76A      0.220242    77A      0.263404    78A      0.301057  
      79A      0.349702    80A      0.372478    81A      0.387467  
      82A      0.420874    83A      0.437232    84A      0.460977  
      85A      0.495166    86A      0.537386    87A      0.557429  
      88A      0.598260    89A      0.606863    90A      0.649934  
      91A      0.666914    92A      0.686241    93A      0.706646  
      94A      0.716308    95A      0.724317    96A      0.744919  
      97A      0.761640    98A      0.798330    99A      0.814307  
     100A      0.849616   101A      0.851703   102A      0.915502  
     103A      0.932573   104A      0.940018   105A      0.958652  
     106A      0.994776   107A      1.023941   108A      1.057159  
     109A      1.073871   110A      1.095616   111A      1.098457  
     112A      1.115168   113A      1.127989   114A      1.150938  
     115A      1.166901   116A      1.183761   117A      1.205433  
     118A      1.213445   119A      1.232383   120A      1.239101  
     121A      1.246220   122A      1.257866   123A      1.268381  
     124A      1.283067   125A      1.287353   126A      1.311869  
     127A      1.320993   128A      1.342997   129A      1.350520  
     130A      1.374969   131A      1.395978   132A      1.418170  
     133A      1.426238   134A      1.442095   135A      1.449050  
     136A      1.487167   137A      1.491681   138A      1.519390  
     139A      1.537128   140A      1.549060   141A      1.583876  
     142A      1.620356   143A      1.623280   144A      1.632441  
     145A      1.659262   146A      1.697714   147A      1.736614  
     148A      1.742792   149A      1.752986   150A      1.785779  
     151A      1.827690   152A      1.886993   153A      1.929249  
     154A      1.973210   155A      1.988651   156A      2.036084  
     157A      2.067171   158A      2.096607   159A      2.119108  
     160A      2.167300   161A      2.273398   162A      2.312330  
     163A      2.335550   164A      2.354125   165A      2.410169  
     166A      2.488053   167A      2.741675   168A      2.764952  
     169A      2.779944   170A      2.781436   171A      2.793716  
     172A      2.843001   173A      2.850000   174A      2.866695  
     175A      2.880603   176A      2.881654   177A      2.883402  
     178A      2.900707   179A      2.937222   180A      2.962313  
     181A      2.971880   182A      2.985077   183A      3.029259  
     184A      3.061361   185A      3.090971   186A      3.108003  
     187A      3.131887   188A      3.136381   189A      3.172170  
     190A      3.184579   191A      3.191290   192A      3.193617  
     193A      3.196670   194A      3.199883   195A      3.206616  
     196A      3.208351   197A      3.224591   198A      3.268765  
     199A      3.274317   200A      3.280827   201A      3.335431  
     202A      3.364625   203A      3.373902   204A      3.416910  
     205A      3.433272   206A      3.544205   207A      3.556955  
     208A      3.567528   209A      3.619676   210A      3.631076  
     211A      3.663921   212A      3.767685   213A      3.796556  
     214A      3.891401   215A      4.037569   216A      4.084612  
     217A      4.193648   218A      4.239513  

    Final Occupation by Irrep:
              A 
    DOCC [    69 ]

  Energy converged.

  @DF-RKS Final Energy: -1824.30701666070786

   => Energetics <=

    Nuclear Repulsion Energy =           1596.3604579208088126
    One-Electron Energy =               -5725.1529297645965926
    Two-Electron Energy =                2429.8550071652971383
    DFT Exchange-Correlation Energy =    -125.3695519822171605
    Empirical Dispersion Energy =           0.0000000000000000
    PCM Polarization Energy =               0.0000000000000000
    EFP Energy =                            0.0000000000000000
    Total Energy =                      -1824.3070166607080864



Properties will be evaluated at   0.000000,   0.000000,   0.000000 Bohr

Properties computed using the SCF density matrix

  Nuclear Dipole Moment: (a.u.)
     X:     0.8353      Y:     4.5633      Z:     3.3523

  Electronic Dipole Moment: (a.u.)
     X:    -1.4238      Y:    -5.7415      Z:    -4.1121

  Dipole Moment: (a.u.)
     X:    -0.5885      Y:    -1.1782      Z:    -0.7597     Total:     1.5204

  Dipole Moment: (Debye)
     X:    -1.4958      Y:    -2.9946      Z:    -1.9311     Total:     3.8645


*** tstop() called on iw-h31-20.pace.gatech.edu at Thu Mar 15 15:21:34 2018
Module time:
	user time   =     312.72 seconds =       5.21 minutes
	system time =       1.45 seconds =       0.02 minutes
	total time  =        337 seconds =       5.62 minutes
Total time:
	user time   =     312.72 seconds =       5.21 minutes
	system time =       1.45 seconds =       0.02 minutes
	total time  =        337 seconds =       5.62 minutes

*** tstart() called on iw-h31-20.pace.gatech.edu
*** at Thu Mar 15 15:21:34 2018


         ------------------------------------------------------------
                                   SCF GRAD                          
                          Rob Parrish, Justin Turney,                
                       Andy Simmonett, and Alex Sokolov              
         ------------------------------------------------------------

  ==> Geometry <==

    Molecular point group: c1
    Full point group: C1

    Geometry (in Angstrom), charge = -1, multiplicity = 1:

       Center              X                  Y                   Z               Mass       
    ------------   -----------------  -----------------  -----------------  -----------------
           N         -0.007556647879     0.180616837554     0.569041431687    14.003074004780
           S          1.451303352121     0.180616837554     0.569041431687    31.972070999000
           O          2.421413352121     0.180616837554     1.596431431687    15.994914619560
           O          2.232263352121     0.344276837554    -1.069238568313    15.994914619560
           C          1.594393352121    -1.751733162446    -0.061318568313    12.000000000000
           F          0.950803352121    -1.843673162446    -1.016158568313    18.998403224000
           F          2.845123352121    -2.186963162446    -0.254828568313    18.998403224000
           F          1.494253352121    -2.520643162446     1.101861431687    18.998403224000
           S         -1.196416647879     1.141726837554     0.569041431687    31.972070999000
           O         -1.124446647879     2.704506837554     0.568311431687    15.994914619560
           O         -2.938456647879     0.584056837554     1.070171431687    15.994914619560
           C         -1.666336647879     0.504776837554    -0.960588568313    12.000000000000
           F         -2.813146647879     0.875966837554    -0.809328568313    18.998403224000
           F         -1.645556647879     1.702756837554    -1.810098568313    18.998403224000
           F         -1.706786647879    -0.808883162446    -0.723958568313    18.998403224000

  Nuclear repulsion = 1596.360457920808813

  ==> Basis Set <==

  Basis Set: DEF2-SVP
    Blend: DEF2-SVP
    Number of shells: 94
    Number of basis function: 218
    Number of Cartesian functions: 233
    Spherical Harmonics?: true
    Max angular momentum: 2

  ==> DFJKGrad: Density-Fitted SCF Gradients <==

    Gradient:                    1
    J tasked:                  Yes
    K tasked:                  Yes
    wK tasked:                  No
    OpenMP threads:              1
    Integrals threads:           1
    Memory (MB):               375
    Schwarz Cutoff:          0E+00
    Fitting Condition:       1E-12

   => Auxiliary Basis Set <=

  Basis Set: (DEF2-SVP AUX)
    Blend: DEF2-SVP-JKFIT
    Number of shells: 401
    Number of basis function: 1253
    Number of Cartesian functions: 1511
    Spherical Harmonics?: true
    Max angular momentum: 4

  ==> DFT Potential <==

   => PBE0 Composite Functional <= 

    PBE0 Hybrid GGA Exchange-Correlation Functional

    Adamo et. al., J. Chem. Phys., 110(13), 6158, 1999

    Points   =           5000
    Deriv    =              1
    GGA      =           TRUE
    Meta     =          FALSE

    X_LRC        =          FALSE
    X_Hybrid     =           TRUE
    X_Alpha      =   2.500000E-01
    X_Omega      =   0.000000E+00
    C_LRC        =          FALSE
    C_Hybrid     =          FALSE
    C_Alpha      =   0.000000E+00
    C_Omega      =   0.000000E+00

   => Exchange Functionals <=

    0.7500   PBE_X
    0.2500      HF 

   => Correlation Functionals <=

    1.0000   PBE_C

   => Molecular Quadrature <=

    Radial Scheme    =       TREUTLER
    Pruning Scheme   =           FLAT
    Nuclear Scheme   =       TREUTLER

    BS radius alpha  =              1
    Pruning alpha    =              1
    Radial Points    =             75
    Spherical Points =            302
    Total Points     =         329666
    Total Blocks     =            283
    Max Points       =           4938
    Max Functions    =            189


  -Total Gradient:
     Atom            X                  Y                   Z
    ------   -----------------  -----------------  -----------------
       1        0.036993495637     0.001326674294    -0.066618940437
       2       -0.173528524364     0.120891368745     0.207844523862
       3       -0.029363569577    -0.034627586092    -0.080100491992
       4        0.052467164355    -0.034099132405    -0.088427367636
       5       -0.159034446812    -0.057455157199    -0.228260977933
       6        0.135191437425     0.052997788850     0.159528043641
       7       -0.028947420570    -0.024392098735     0.045419448779
       8        0.070988020284     0.008667641189     0.000033295657
       9        0.115351189843    -0.103749556010    -0.069019259907
      10       -0.015714345814     0.088366778916    -0.006074416847
      11       -0.112125310466    -0.017260003229    -0.093711157891
      12        0.040412340051    -0.074692964293    -0.018240914974
      13        0.240186358910     0.050389872349     0.055794524803
      14       -0.143356381838     0.004962842693     0.106817943025
      15       -0.029532584389     0.018583477052     0.075199780953


*** tstop() called on iw-h31-20.pace.gatech.edu at Thu Mar 15 15:24:12 2018
Module time:
	user time   =      87.25 seconds =       1.45 minutes
	system time =       0.55 seconds =       0.01 minutes
	total time  =        158 seconds =       2.63 minutes
Total time:
	user time   =     399.97 seconds =       6.67 minutes
	system time =       2.00 seconds =       0.03 minutes
	total time  =        495 seconds =       8.25 minutes
                                     G D M A

                                 by Anthony Stone

                           version 2.2.06, 22 June 2011

               Distributed Multipoles from Gaussian wavefunctions


Starting at 15:24:12 on 15 Mar 2018 


Using SCF density matrix from file TFSI_90_99.xyz.inp.TFSI.54773.fchk


                         Distributed Multipole Analysis

Standard DMA

Positions and radii in angstrom
Multipole moments in atomic units, ea_0^k for rank k

N          x = -0.007557  y =  0.180617  z =  0.569041 angstrom
           Maximum rank =  4   Radius =  0.530 angstrom
                   Q00  =   0.058186
|Q1| =   0.368368  Q10  =  -0.286583  Q11c =   0.201082  Q11s =   0.114590
|Q2| =   2.156361  Q20  =  -1.029908  Q21c =  -0.499503  Q21s =  -0.052963
                   Q22c =   1.241509  Q22s =  -1.339973
|Q3| =   2.763110  Q30  =   1.340087  Q31c =  -0.833441  Q31s =   0.877562
                   Q32c =  -1.511325  Q32s =   0.561774  Q33c =  -1.294696
                   Q33s =  -0.313489
|Q4| =   3.751924  Q40  =  -0.268028  Q41c =   1.735242  Q41s =   0.022468
                   Q42c =  -0.143573  Q42s =  -0.199707  Q43c =  -0.772211
                   Q43s =  -0.869539  Q44c =  -0.496398  Q44s =  -3.055194

S          x =  1.451303  y =  0.180617  z =  0.569041 angstrom
           Maximum rank =  4   Radius =  0.530 angstrom
                   Q00  =   0.605148
|Q1| =   0.970702  Q10  =   0.543778  Q11c =   0.291940  Q11s =   0.749225
|Q2| =   1.251691  Q20  =   0.784839  Q21c =  -0.021960  Q21s =  -0.452853
                   Q22c =   0.863247  Q22s =  -0.002262
|Q3| =   2.358553  Q30  =  -0.700730  Q31c =  -1.121910  Q31s =  -0.720414
                   Q32c =  -1.146321  Q32s =   0.038599  Q33c =   0.726379
                   Q33s =  -1.204534
|Q4| =   4.004671  Q40  =   0.480328  Q41c =   1.911771  Q41s =   2.319350
                   Q42c =  -0.160008  Q42s =  -0.539816  Q43c =  -0.291351
                   Q43s =   2.036074  Q44c =  -1.438939  Q44s =   0.392925

O          x =  2.421413  y =  0.180617  z =  1.596431 angstrom
           Maximum rank =  4   Radius =  0.530 angstrom
                   Q00  =  -0.484908
|Q1| =   0.287163  Q10  =  -0.225686  Q11c =   0.009674  Q11s =  -0.177298
|Q2| =   0.685278  Q20  =   0.318358  Q21c =   0.478431  Q21s =   0.269267
                   Q22c =  -0.129923  Q22s =   0.223547
|Q3| =   1.259974  Q30  =  -0.016169  Q31c =  -0.821692  Q31s =  -0.308469
                   Q32c =   0.150331  Q32s =  -0.649440  Q33c =   0.559740
                   Q33s =  -0.243439
|Q4| =   2.004015  Q40  =  -0.938255  Q41c =   0.895629  Q41s =   0.004343
                   Q42c =   0.575436  Q42s =   0.752044  Q43c =  -0.807714
                   Q43s =   0.518527  Q44c =  -0.704107  Q44s =  -0.140885

O          x =  2.232263  y =  0.344277  z = -1.069239 angstrom
           Maximum rank =  4   Radius =  0.530 angstrom
                   Q00  =  -0.739295
|Q1| =   0.182878  Q10  =  -0.106941  Q11c =   0.120900  Q11s =  -0.085972
|Q2| =   0.745769  Q20  =   0.453121  Q21c =  -0.436334  Q21s =  -0.362276
                   Q22c =  -0.081008  Q22s =   0.150526
|Q3| =   2.239542  Q30  =  -0.264828  Q31c =  -0.632766  Q31s =  -1.377918
                   Q32c =  -0.848735  Q32s =   1.112486  Q33c =   0.601526
                   Q33s =  -0.571448
|Q4| =   4.536073  Q40  =  -1.607342  Q41c =  -1.843706  Q41s =  -1.081596
                   Q42c =  -1.202089  Q42s =   2.393415  Q43c =   1.898312
                   Q43s =  -0.692883  Q44c =  -1.440570  Q44s =   0.301562

C          x =  1.594393  y = -1.751733  z = -0.061319 angstrom
           Maximum rank =  4   Radius =  0.530 angstrom
                   Q00  =  -0.051841
|Q1| =   0.416205  Q10  =  -0.281711  Q11c =  -0.079489  Q11s =   0.295884
|Q2| =   0.658854  Q20  =  -0.172244  Q21c =   0.311334  Q21s =   0.129810
                   Q22c =  -0.380338  Q22s =   0.382077
|Q3| =   6.000654  Q30  =  -0.688685  Q31c =   2.724047  Q31s =   2.641488
                   Q32c =   3.612931  Q32s =  -1.261954  Q33c =  -1.876004
                   Q33s =   1.723508
|Q4| =   8.781223  Q40  =   1.765985  Q41c =  -0.199987  Q41s =   3.368842
                   Q42c =   3.999140  Q42s =  -4.796354  Q43c =  -2.457955
                   Q43s =  -2.315736  Q44c =  -1.865635  Q44s =   2.952828

F          x =  0.950803  y = -1.843673  z = -1.016159 angstrom
           Maximum rank =  4   Radius =  0.000 angstrom
                   Q00  =   0.140687
|Q1| =   0.205487  Q10  =   0.173344  Q11c =   0.108225  Q11s =  -0.021542
|Q2| =   0.231871  Q20  =   0.133600  Q21c =   0.175524  Q21s =  -0.006378
                   Q22c =   0.068396  Q22s =   0.019698
|Q3| =   0.007307  Q30  =   0.001347  Q31c =   0.006382  Q31s =   0.000949
                   Q32c =   0.003000  Q32s =   0.000398  Q33c =   0.000629
                   Q33s =  -0.000628
|Q4| =   0.000095  Q40  =  -0.000004  Q41c =   0.000061  Q41s =   0.000013
                   Q42c =   0.000064  Q42s =   0.000016  Q43c =   0.000027
                   Q43s =  -0.000007  Q44c =   0.000008  Q44s =  -0.000003

F          x =  2.845123  y = -2.186963  z = -0.254829 angstrom
           Maximum rank =  4   Radius =  0.000 angstrom
                   Q00  =  -0.027082
|Q1| =   0.116483  Q10  =   0.001855  Q11c =  -0.103206  Q11s =   0.053976
|Q2| =   0.195418  Q20  =  -0.102585  Q21c =  -0.025974  Q21s =   0.021905
                   Q22c =   0.114723  Q22s =  -0.115536
|Q3| =   0.003870  Q30  =  -0.000579  Q31c =   0.001574  Q31s =  -0.001232
                   Q32c =   0.000720  Q32s =  -0.000246  Q33c =  -0.001922
                   Q33s =   0.002525
|Q4| =   0.000033  Q40  =  -0.000013  Q41c =  -0.000003  Q41s =   0.000007
                   Q42c =   0.000016  Q42s =  -0.000003  Q43c =  -0.000017
                   Q43s =  -0.000008  Q44c =   0.000014  Q44s =  -0.000009

F          x =  1.494253  y = -2.520643  z =  1.101861 angstrom
           Maximum rank =  4   Radius =  0.000 angstrom
                   Q00  =  -0.079344
|Q1| =   0.092822  Q10  =  -0.078311  Q11c =  -0.031468  Q11s =   0.038640
|Q2| =   0.182003  Q20  =   0.108513  Q21c =   0.031531  Q21s =  -0.137459
                   Q22c =  -0.037778  Q22s =  -0.005778
|Q3| =   0.002624  Q30  =   0.000155  Q31c =   0.000241  Q31s =   0.002049
                   Q32c =   0.001075  Q32s =   0.000283  Q33c =   0.000685
                   Q33s =  -0.000947
|Q4| =   0.000039  Q40  =  -0.000016  Q41c =  -0.000015  Q41s =   0.000018
                   Q42c =   0.000019  Q42s =   0.000009  Q43c =  -0.000001
                   Q43s =  -0.000014  Q44c =  -0.000006  Q44s =   0.000004

S          x = -1.196417  y =  1.141727  z =  0.569041 angstrom
           Maximum rank =  4   Radius =  0.530 angstrom
                   Q00  =   0.776917
|Q1| =   0.432597  Q10  =   0.034851  Q11c =   0.042323  Q11s =   0.429108
|Q2| =   0.365372  Q20  =  -0.256041  Q21c =  -0.020092  Q21s =  -0.168554
                   Q22c =  -0.154051  Q22s =   0.124072
|Q3| =   1.437850  Q30  =   0.655158  Q31c =   0.623327  Q31s =   0.274204
                   Q32c =  -0.138581  Q32s =  -0.048178  Q33c =   0.166257
                   Q33s =   1.060797
|Q4| =   2.640818  Q40  =  -0.364517  Q41c =  -1.205044  Q41s =  -0.822609
                   Q42c =   0.404842  Q42s =  -1.062309  Q43c =   1.326400
                   Q43s =   0.919338  Q44c =  -0.200323  Q44s =  -0.880447

O          x = -1.124447  y =  2.704507  z =  0.568311 angstrom
           Maximum rank =  4   Radius =  0.530 angstrom
                   Q00  =  -0.596765
|Q1| =   0.144270  Q10  =   0.021875  Q11c =  -0.119069  Q11s =   0.078472
|Q2| =   0.513416  Q20  =  -0.117182  Q21c =   0.021721  Q21s =  -0.118984
                   Q22c =  -0.401582  Q22s =   0.271971
|Q3| =   0.896806  Q30  =  -0.171149  Q31c =   0.112350  Q31s =   0.105350
                   Q32c =  -0.089116  Q32s =   0.022599  Q33c =   0.657167
                   Q33s =   0.557608
|Q4| =   2.214446  Q40  =   0.391142  Q41c =   0.120873  Q41s =   0.494460
                   Q42c =   0.690410  Q42s =  -0.302645  Q43c =   0.056354
                   Q43s =   0.138583  Q44c =   1.559820  Q44s =  -1.211611

O          x = -2.938457  y =  0.584057  z =  1.070171 angstrom
           Maximum rank =  4   Radius =  0.530 angstrom
                   Q00  =  -0.593331
|Q1| =   0.355131  Q10  =  -0.242900  Q11c =  -0.258516  Q11s =   0.016957
|Q2| =   0.628972  Q20  =   0.361733  Q21c =  -0.074345  Q21s =  -0.227962
                   Q22c =   0.369129  Q22s =   0.266466
|Q3| =   1.280184  Q30  =  -0.695901  Q31c =   0.649258  Q31s =   0.600263
                   Q32c =  -0.429519  Q32s =  -0.334265  Q33c =  -0.067762
                   Q33s =   0.268196
|Q4| =   2.504698  Q40  =   0.379534  Q41c =   0.750924  Q41s =  -0.615905
                   Q42c =   0.894790  Q42s =   0.523702  Q43c =  -1.091912
                   Q43s =  -0.952945  Q44c =  -0.005568  Q44s =   1.418070

C          x = -1.666337  y =  0.504777  z = -0.960589 angstrom
           Maximum rank =  4   Radius =  0.530 angstrom
                   Q00  =   0.180203
|Q1| =   0.365284  Q10  =   0.363375  Q11c =   0.017019  Q11s =   0.033193
|Q2| =   1.451163  Q20  =   0.750570  Q21c =  -0.040690  Q21s =   0.963857
                   Q22c =   0.351506  Q22s =  -0.698774
|Q3| =   6.137648  Q30  =  -0.474204  Q31c =  -1.644499  Q31s =  -3.617267
                   Q32c =  -2.539841  Q32s =   1.044807  Q33c =   3.499689
                   Q33s =  -1.366241
|Q4| =  10.844411  Q40  =  -0.548931  Q41c =   0.176986  Q41s =   4.950711
                   Q42c =   4.064159  Q42s =  -3.430498  Q43c =  -5.240553
                   Q43s =   0.108767  Q44c =  -5.288776  Q44s =   3.004492

F          x = -2.813147  y =  0.875967  z = -0.809329 angstrom
           Maximum rank =  4   Radius =  0.000 angstrom
                   Q00  =  -0.065398
|Q1| =   0.183812  Q10  =  -0.101178  Q11c =   0.107174  Q11s =  -0.109835
|Q2| =   0.273794  Q20  =  -0.134934  Q21c =  -0.059932  Q21s =   0.054049
                   Q22c =   0.150405  Q22s =  -0.166195
|Q3| =   0.009198  Q30  =   0.004106  Q31c =  -0.005138  Q31s =   0.002184
                   Q32c =  -0.001186  Q32s =   0.000701  Q33c =   0.003021
                   Q33s =  -0.005055
|Q4| =   0.000141  Q40  =   0.000020  Q41c =   0.000104  Q41s =  -0.000011
                   Q42c =  -0.000043  Q42s =   0.000032  Q43c =  -0.000067
                   Q43s =  -0.000015  Q44c =   0.000010  Q44s =  -0.000031

F          x = -1.645557  y =  1.702757  z = -1.810099 angstrom
           Maximum rank =  4   Radius =  0.000 angstrom
                   Q00  =  -0.126765
|Q1| =   0.096687  Q10  =  -0.027396  Q11c =   0.077047  Q11s =  -0.051591
|Q2| =   0.214299  Q20  =  -0.066756  Q21c =   0.050676  Q21s =  -0.087988
                   Q22c =  -0.148639  Q22s =  -0.095207
|Q3| =   0.002410  Q30  =  -0.002107  Q31c =   0.000258  Q31s =   0.000014
                   Q32c =  -0.000065  Q32s =   0.000127  Q33c =  -0.000864
                   Q33s =  -0.000732
|Q4| =   0.000078  Q40  =   0.000001  Q41c =  -0.000002  Q41s =  -0.000016
                   Q42c =   0.000002  Q42s =   0.000018  Q43c =   0.000042
                   Q43s =  -0.000034  Q44c =  -0.000043  Q44s =  -0.000026

F          x = -1.706787  y = -0.808883  z = -0.723959 angstrom
           Maximum rank =  4   Radius =  0.000 angstrom
                   Q00  =   0.003589
|Q1| =   0.112109  Q10  =  -0.072262  Q11c =   0.010511  Q11s =   0.085065
|Q2| =   0.210537  Q20  =  -0.054917  Q21c =  -0.035077  Q21s =  -0.124081
                   Q22c =  -0.153130  Q22s =   0.035134
|Q3| =   0.005224  Q30  =   0.001396  Q31c =  -0.000066  Q31s =  -0.002703
                   Q32c =   0.002655  Q32s =  -0.000099  Q33c =  -0.000735
                   Q33s =  -0.003230
|Q4| =   0.000042  Q40  =   0.000023  Q41c =   0.000002  Q41s =   0.000017
                   Q42c =   0.000021  Q42s =   0.000002  Q43c =  -0.000003
                   Q43s =   0.000013  Q44s =   0.000018

Total multipoles referred to origin at
           x =   0.000000,  y =    0.000000,  z =    0.000000 angstrom
                   Q00  =  -1.000000
|Q1| =   1.520414  Q10  =  -0.759745  Q11c =  -0.588494  Q11s =  -1.178185
|Q2| =  26.888377  Q20  =  14.254389  Q21c =   8.603286  Q21s =   4.829656
                   Q22c = -15.511472  Q22s =  13.485152
|Q3| =  83.403374  Q30  =  53.516801  Q31c = -20.570555  Q31s =   7.319409
                   Q32c = -35.560424  Q32s =  42.273817  Q33c = -23.244964
                   Q33s =  -4.837932
|Q4| = 614.154816  Q40  = 133.650660  Q41c =-356.011666  Q41s =  87.900984
                   Q42c =-187.386083  Q42s =-183.948130  Q43c = 346.458924
                   Q43s = -85.630947  Q44c =-150.695557  Q44s = -76.332792

Finished at 15:24:13 on 15 Mar 2018 

  DMA results are available in the Python driver through the
	  get_array_variable('DMA DISTRIBUTED MULTIPOLES')
  and
	  get_array_variable('DMA TOTAL MULTIPOLES')
  commands.


*** Psi4 exiting successfully. Buy a developer a beer!
